[Molden Format]

[FREQ]
      116.4648928213
      136.8670152362
      247.4637524994
      374.8881123741
      437.6707422402
      545.5421958574
      562.6829744506
      672.1471192891
      870.8204044732
     1096.1753326859
     1178.1872463147
     1253.1071352074
     1304.0732509561
     1339.2293247777
     1449.7982852416
     1473.2163539957
     1631.4027450914
     1677.3099962223
     3241.0965802062
     3296.5555307497
     4049.9983445261


[FR-COORD]
 C     -0.6302309916     -0.0662664097     -0.0000000000
 C      1.7815421420     -1.5472178426     -0.0000000000
 F     -2.6288894281     -1.7094909555      0.0000000000
 F     -0.8769818945      1.4248786675      2.0740016073
 F     -0.8769818945      1.4248786675     -2.0740016073
 H      1.7931585668     -2.7276441361      1.6657719926
 O      3.7781910450      0.2279668977      0.0000000000
 H      1.7931585668     -2.7276441361     -1.6657719926
 H      5.4211034675     -0.4954322725      0.0000000000


[FR-NORM-COORD]
Vibration 1
      0.0000000000      0.0000000000     -0.0062648948
     -0.0000000000     -0.0000000000     -0.0366113110
      0.0000000000     -0.0000000000      0.0162811004
      0.0180390381      0.0129917125     -0.0186951907
     -0.0180390381     -0.0129917125     -0.0186951907
     -0.0182849964     -0.0973638041     -0.1072267584
     -0.0000000000     -0.0000000000      0.1317349790
      0.0182849964      0.0973638041     -0.1072267584
      0.0000000000      0.0000000000     -0.9678277339
Vibration 2
     -0.0000000000     -0.0000000000      0.0491114943
      0.0000000000      0.0000000000      0.1597155508
     -0.0000000000      0.0000000000     -0.0672742997
     -0.1229914299     -0.0133457784      0.0487927775
      0.1229914299      0.0133457784      0.0487927775
      0.0850109377      0.2339643805      0.3244366560
     -0.0000000000      0.0000000000     -0.1862789038
     -0.0850109377     -0.2339643805      0.3244366560
      0.0000000000      0.0000000000     -0.7503540496
Vibration 3
      0.0015434624     -0.1393033982     -0.0000000000
      0.0060611887     -0.0904134042     -0.0000000000
     -0.2223963874      0.1555662792      0.0000000000
      0.2388760712     -0.1469178645      0.0311335462
      0.2388760712     -0.1469178645     -0.0311335462
      0.1790204551     -0.0696134867      0.0111214437
     -0.3212921417      0.3033836357      0.0000000000
      0.1790204551     -0.0696134867     -0.0111214437
     -0.1631330942      0.6660099091      0.0000000000
Vibration 4
     -0.0000000000      0.0000000000      0.0774933728
      0.0000000000      0.0000000000     -0.2203824898
     -0.0000000000     -0.0000000000      0.1433004244
     -0.2144178706      0.0493011734      0.0130625472
      0.2144178706     -0.0493011734      0.0130625472
      0.1400418123     -0.3796199523     -0.4942179865
      0.0000000000      0.0000000000     -0.0381636006
     -0.1400418123      0.3796199523     -0.4942179865
      0.0000000000     -0.0000000000      0.1016536970
Vibration 5
      0.0144718550      0.0014739974      0.0000000000
     -0.2218122072     -0.1677878413     -0.0000000000
      0.2751383941     -0.3160852051     -0.0000000000
      0.1354951431      0.2317177325     -0.1631651961
      0.1354951431      0.2317177325      0.1631651961
     -0.2609122502     -0.1658960120      0.0029192693
     -0.4399789852     -0.0446737895     -0.0000000000
     -0.2609122502     -0.1658960120     -0.0029192693
     -0.3216377009      0.2433837545      0.0000000000
Vibration 6
     -0.0000000000     -0.0000000000      0.2563404359
      0.0000000000     -0.0000000000     -0.0422327963
     -0.0000000000      0.0000000000     -0.3578269700
      0.0821160795      0.2873166448      0.1414312568
     -0.0821160795     -0.2873166448      0.1414312568
      0.2446571174     -0.3699218236     -0.3077330491
      0.0000000000      0.0000000000     -0.0354948960
     -0.2446571174      0.3699218236     -0.3077330491
      0.0000000000      0.0000000000      0.0425999159
Vibration 7
      0.0172849116      0.2525973616      0.0000000000
     -0.2511524882      0.1405857674     -0.0000000000
      0.2908337390      0.0474724702     -0.0000000000
      0.0285679878     -0.1236021923      0.3459249249
      0.0285679878     -0.1236021923     -0.3459249249
     -0.4173313815      0.1397664480     -0.0020599108
     -0.1714547302     -0.0652737253     -0.0000000000
     -0.4173313815      0.1397664480      0.0020599108
     -0.2191453908     -0.1600304588      0.0000000000
Vibration 8
     -0.2543445597      0.0153173798     -0.0000000000
     -0.1669368354      0.3195796478      0.0000000000
     -0.2345313520     -0.3264819477     -0.0000000000
      0.1849731117      0.0372276358      0.0560465840
      0.1849731117      0.0372276358     -0.0560465840
     -0.1734066948      0.3121207072     -0.0105169681
      0.1807094719      0.0416920919      0.0000000000
     -0.1734066948      0.3121207072      0.0105169681
     -0.0577430947     -0.5225584685     -0.0000000000
Vibration 9
      0.0242354101     -0.0240831668     -0.0000000000
     -0.2205627204      0.2888387729     -0.0000000000
      0.1252596911      0.1453227914      0.0000000000
      0.0221349705     -0.1599825996     -0.2395235412
      0.0221349705     -0.1599825996      0.2395235412
     -0.3032411481      0.2799038520     -0.0122278911
     -0.0014396945      0.0062579976      0.0000000000
     -0.3032411481      0.2799038520      0.0122278911
     -0.2288182330     -0.5193607395     -0.0000000000
Vibration 10
      0.0000000000     -0.0000000000     -0.1055768532
      0.0000000000     -0.0000000000     -0.2057560085
     -0.0000000000      0.0000000000     -0.0002602098
     -0.0219620403      0.0588431409      0.0693771221
      0.0219620403     -0.0588431409      0.0693771221
     -0.2610013358      0.5894200620      0.2193013334
     -0.0000000000     -0.0000000000      0.0416183582
      0.2610013358     -0.5894200620      0.2193013334
      0.0000000000      0.0000000000     -0.0028655681
Vibration 11
      0.0721523340     -0.0435982103      0.0000000000
      0.3481070716      0.3767720024     -0.0000000000
     -0.0658759275     -0.0169612879      0.0000000000
     -0.0010990346      0.0098622193      0.0089457601
     -0.0010990346      0.0098622193     -0.0089457601
      0.4081031243      0.3134466311     -0.0336066930
     -0.2750743884     -0.2947658023      0.0000000000
      0.4081031243      0.3134466311      0.0336066930
     -0.1712771158      0.0321227994      0.0000000000
Vibration 12
     -0.0789106982     -0.1682021073      0.0000000000
      0.0020136528     -0.0164121699     -0.0000000000
      0.0577348297      0.0445080467     -0.0000000000
     -0.0034241376      0.0356348325      0.0332688578
     -0.0034241376      0.0356348325     -0.0332688578
      0.3115930394     -0.0252636368     -0.0060256936
     -0.0187812183      0.0537975393      0.0000000000
      0.3115930394     -0.0252636368      0.0060256936
     -0.3687716307     -0.7876215500      0.0000000000
Vibration 13
      0.0000000000     -0.0000000000     -0.1865951940
      0.0000000000      0.0000000000      0.0994478524
     -0.0000000000      0.0000000000      0.0105936063
     -0.0064575806      0.0321031591      0.0516786539
      0.0064575806     -0.0321031591      0.0516786539
     -0.5760587516     -0.3468481006     -0.1404754011
     -0.0000000000     -0.0000000000     -0.0498686073
      0.5760587516      0.3468481006     -0.1404754011
     -0.0000000000     -0.0000000000     -0.0380263829
Vibration 14
      0.3683421349      0.1460457616      0.0000000000
     -0.0056203099     -0.0414341178     -0.0000000000
     -0.1207569229     -0.0790022831     -0.0000000000
     -0.0248355371     -0.0063604063     -0.0005010217
     -0.0248355371     -0.0063604063      0.0005010217
     -0.0434345338     -0.0018562078      0.0192967106
     -0.0386797679      0.0811885599      0.0000000000
     -0.0434345338     -0.0018562078     -0.0192967106
     -0.4054014155     -0.8013394847      0.0000000000
Vibration 15
     -0.2060444493      0.3587560503     -0.0000000000
      0.0644498138     -0.0979852036      0.0000000000
      0.0185207651     -0.0191568404      0.0000000000
      0.0197674131     -0.0607209392     -0.0552033552
      0.0197674131     -0.0607209392      0.0552033552
      0.5863878110     -0.0549883044      0.0268804565
     -0.0273784284     -0.0035971817      0.0000000000
      0.5863878110     -0.0549883044     -0.0268804565
     -0.1467168407     -0.2874757172      0.0000000000
Vibration 16
     -0.0000000000      0.0000000000      0.2587642514
      0.0000000000     -0.0000000000     -0.0459107861
     -0.0000000000     -0.0000000000     -0.0135915686
      0.0021124250     -0.0253963621     -0.0505443292
     -0.0021124250      0.0253963621     -0.0505443292
     -0.6774420856      0.0482365121      0.0201525553
     -0.0000000000     -0.0000000000     -0.0247453965
      0.6774420856     -0.0482365121      0.0201525553
     -0.0000000000     -0.0000000000     -0.0201626174
Vibration 17
      0.0984104103     -0.0300328496     -0.0000000000
     -0.2080710153      0.0151948704      0.0000000000
     -0.0106952183     -0.0058101281      0.0000000000
     -0.0070996336      0.0076199111      0.0076909052
     -0.0070996336      0.0076199111     -0.0076909052
      0.6142141002      0.1749346620      0.0776900765
      0.0242266465     -0.0409195584     -0.0000000000
      0.6142141002      0.1749346620     -0.0776900765
      0.1620706899      0.2984688725     -0.0000000000
Vibration 18
     -0.0176616715     -0.0077869910      0.0000000000
      0.0348451210     -0.0864233987      0.0000000000
      0.0037751143      0.0023191071     -0.0000000000
      0.0005940848      0.0007933840     -0.0001485387
      0.0005940848      0.0007933840      0.0001485387
     -0.0988690453      0.5465782503      0.4313267312
     -0.0051486375     -0.0004680952     -0.0000000000
     -0.0988690453      0.5465782503     -0.4313267312
     -0.0187120240     -0.0376097584     -0.0000000000
Vibration 19
      0.0027317269      0.0000777141     -0.0000000000
     -0.0055755708      0.0668955584     -0.0000000000
     -0.0005454510     -0.0003356555     -0.0000000000
      0.0000303541     -0.0002116393     -0.0000253468
      0.0000303541     -0.0002116393      0.0000253468
      0.0129310082     -0.3936498758      0.5853177312
      0.0012396339     -0.0000789837     -0.0000000000
      0.0129310082     -0.3936498758     -0.5853177312
     -0.0025369087      0.0054205851     -0.0000000000
Vibration 20
      0.0000000000     -0.0000000000     -0.0035466252
      0.0000000000     -0.0000000000     -0.0953623605
     -0.0000000000      0.0000000000      0.0003075446
     -0.0001880960      0.0003290637      0.0005730792
      0.0001880960     -0.0003290637      0.0005730792
      0.0170485931     -0.4095803834      0.5721876667
      0.0000000000     -0.0000000000      0.0004434513
     -0.0170485931      0.4095803834      0.5721876667
      0.0000000000     -0.0000000000     -0.0011244827
Vibration 21
      0.0003792240      0.0001936734     -0.0000000000
      0.0004602978      0.0028082875     -0.0000000000
      0.0000981400     -0.0000168917     -0.0000000000
      0.0000289974     -0.0000613978     -0.0000230850
      0.0000289974     -0.0000613978      0.0000230850
      0.0023198129     -0.0006591758      0.0024043061
     -0.0591346486      0.0222257413     -0.0000000000
      0.0023198129     -0.0006591758     -0.0024043061
      0.9209308369     -0.3845308962      0.0000000000

[INT]
      241.1873175809
        6.6642844936
        1.1629904377
        0.0680608953
        0.8018469748
       10.8046742813
       20.5841340271
       51.6425256889
       17.9188095202
       65.3281941404
       83.8943991878
      339.6491878996
       84.1027346540
       90.6211112234
      141.5432450575
      140.0460802212
        9.2310197023
        6.5801592997
       14.5524673055
       21.5537046204
       72.7426683811