[Molden Format]

[FREQ]
      407.7281392356
      407.7281392357
      958.9219145680
     1048.5779701922
     1048.5779701922
     1149.9234713814
     1149.9234713814
     1173.0348115626
     1573.1100673038
     1620.5713426899
     2177.2886681760
     3284.1193881896
     3284.2657555691
     3362.0826670553
     3362.0826670554


[FR-COORD]
 C      0.0000000000      0.0000000000     -0.0000000000
 C     -0.0000000000      0.0000000000      2.4500711842
 C      0.0000000000     -0.0000000000     -2.4500711842
 H     -1.2225711550     -1.2225711550      3.5069645245
 H      1.2225711550      1.2225711550      3.5069645245
 H     -1.2225711550      1.2225711550     -3.5069645245
 H      1.2225711550     -1.2225711550     -3.5069645245


[FR-NORM-COORD]
Vibration 1
      0.2427131366     -0.2242883103     -0.0000000000
     -0.0995767352      0.0952391785      0.0000000000
     -0.0588136198      0.0511274565      0.0000000000
     -0.2408271726      0.2209369289     -0.0175776796
     -0.2408271726      0.2209369289      0.0175776796
     -0.2611812850      0.2429630901      0.4455293991
     -0.2611812850      0.2429630901     -0.4455293991
Vibration 2
     -0.2242883103     -0.2427131366      0.0000000000
      0.0511274565      0.0588136198      0.0000000000
      0.0952391785      0.0995767352      0.0000000000
      0.2429630901      0.2611812850      0.4455293991
      0.2429630901      0.2611812850     -0.4455293991
      0.2209369289      0.2408271726      0.0175776796
      0.2209369289      0.2408271726     -0.0175776796
Vibration 3
      0.0000000000      0.0000000000      0.0000000000
      0.0000000000     -0.0000000000      0.0000000000
     -0.0000000000     -0.0000000000     -0.0000000000
     -0.3535533906      0.3535533906      0.0000000000
      0.3535533906     -0.3535533906      0.0000000000
     -0.3535533906     -0.3535533906     -0.0000000000
      0.3535533906      0.3535533906     -0.0000000000
Vibration 4
      0.0177792443      0.0166358800      0.0000000000
      0.0148932938      0.0224167963      0.0000000000
     -0.1126084788     -0.1138480217     -0.0000000000
     -0.0103380799     -0.0427043891     -0.1001151973
     -0.0103380799     -0.0427043891      0.1001151973
      0.4862298558      0.4879920713      0.0033260999
      0.4862298558      0.4879920713     -0.0033260999
Vibration 5
     -0.0166358800      0.0177792443      0.0000000000
      0.1138480217     -0.1126084788      0.0000000000
     -0.0224167963      0.0148932938     -0.0000000000
     -0.4879920713      0.4862298558     -0.0033260999
     -0.4879920713      0.4862298558      0.0033260999
      0.0427043891     -0.0103380799     -0.1001151973
      0.0427043891     -0.0103380799      0.1001151973
Vibration 6
      0.1015483170     -0.1056625530     -0.0000000000
     -0.0248788947      0.0293764377     -0.0000000000
     -0.1127193120      0.1137965684      0.0000000000
      0.0383614900     -0.0453938411     -0.0127023783
      0.0383614900     -0.0453938411      0.0127023783
      0.1762584404     -0.1779214284     -0.6397471657
      0.1762584404     -0.1779214284      0.6397471657
Vibration 7
      0.1056625530      0.1015483170     -0.0000000000
     -0.1137965684     -0.1127193120      0.0000000000
     -0.0293764377     -0.0248788947     -0.0000000000
      0.1779214284      0.1762584404      0.6397471657
      0.1779214284      0.1762584404     -0.6397471657
      0.0453938411      0.0383614900     -0.0127023783
      0.0453938411      0.0383614900      0.0127023783
Vibration 8
      0.0000000000     -0.0000000000     -0.0000000000
     -0.0000000000      0.0000000000      0.2799406369
     -0.0000000000      0.0000000000     -0.2799406369
      0.0563404255      0.0563404255      0.4521815264
     -0.0563404255     -0.0563404255      0.4521815264
      0.0563404255     -0.0563404255     -0.4521815264
     -0.0563404255      0.0563404255     -0.4521815264
Vibration 9
     -0.0000000000      0.0000000000     -0.0535802985
      0.0000000000      0.0000000000     -0.0433204924
      0.0000000000     -0.0000000000     -0.0433204924
      0.1925137867      0.1925137867      0.4173976991
     -0.1925137867     -0.1925137867      0.4173976991
     -0.1925137867      0.1925137867      0.4173976991
      0.1925137867     -0.1925137867      0.4173976991
Vibration 10
     -0.0000000000      0.0000000000      0.0000000000
     -0.0000000000     -0.0000000000      0.1189504093
      0.0000000000     -0.0000000000     -0.1189504093
     -0.2185162195     -0.2185162195     -0.3839618780
      0.2185162195      0.2185162195     -0.3839618780
     -0.2185162195      0.2185162195      0.3839618780
      0.2185162195     -0.2185162195      0.3839618780
Vibration 11
      0.0000000000     -0.0000000000      0.7002710115
     -0.0000000000      0.0000000000     -0.3332607942
      0.0000000000      0.0000000000     -0.3332607942
      0.1757570846      0.1757570846     -0.1004621501
     -0.1757570846     -0.1757570846     -0.1004621501
     -0.1757570846      0.1757570846     -0.1004621501
      0.1757570846     -0.1757570846     -0.1004621501
Vibration 12
     -0.0000000000      0.0000000000     -0.0153944370
     -0.0000000000     -0.0000000000      0.0504376479
     -0.0000000000      0.0000000000      0.0504376479
      0.3032517240      0.3032517240     -0.2544514856
     -0.3032517240     -0.3032517240     -0.2544514856
     -0.3032517239      0.3032517239     -0.2544514856
      0.3032517239     -0.3032517239     -0.2544514856
Vibration 13
     -0.0000000000     -0.0000000000      0.0000000000
     -0.0000000000     -0.0000000000      0.0487257115
      0.0000000000     -0.0000000000     -0.0487257116
      0.3030911394      0.3030911394     -0.2551164929
     -0.3030911394     -0.3030911394     -0.2551164929
      0.3030911394     -0.3030911394      0.2551164929
     -0.3030911394      0.3030911394      0.2551164929
Vibration 14
     -0.0007785954     -0.0008509926     -0.0000000000
     -0.0694459939     -0.0694611241     -0.0000000000
      0.0029153076     -0.0032558740      0.0000000000
      0.4195026457      0.4194896925     -0.3771425130
      0.4195026457      0.4194896925      0.3771425130
     -0.0187826029      0.0184910382     -0.0167551884
     -0.0187826029      0.0184910382      0.0167551884
Vibration 15
      0.0008509926     -0.0007785954     -0.0000000000
      0.0032558740      0.0029153076     -0.0000000000
      0.0694611241     -0.0694459939      0.0000000000
     -0.0184910382     -0.0187826029      0.0167551884
     -0.0184910382     -0.0187826029     -0.0167551884
     -0.4194896925      0.4195026457     -0.3771425130
     -0.4194896925      0.4195026457      0.3771425130

[INT]
       10.1866697407
       10.1866697407
        0.0000000000
       78.4383471051
       78.4383471051
        0.2370084670
        0.2370084670
        0.0000000000
        2.2122334515
        0.0000000000
      111.8498356725
        5.7627115999
        0.0000000000
        7.5487559037
        7.5487559037