[Molden Format]

[FREQ]
      464.9216997314
      464.9216997316
      689.4746178033
      689.4746178040
      783.8029553695
      807.1139653670
      993.1794214393
      993.1794214395
     1088.1517357919
     1138.4715653423
     1147.8916357086
     1147.8916357088
     1150.9576218265
     1150.9576218267
     1194.6447352776
     1271.1115556185
     1320.0448096538
     1320.0448096539
     1385.1883393839
     1538.8058634498
     1662.3094918034
     1662.3094918034
     1795.9361324411
     1795.9361324416
     3345.9588359665
     3357.0560492798
     3357.0560492799
     3377.0384736609
     3377.0384736611
     3392.1454405327


[FR-COORD]
 C     -2.6235090616      0.0000000000     -0.0000000000
 C     -1.3117545308      2.2720254944     -0.0000000000
 C      1.3117545308      2.2720254944      0.0000000000
 C      2.6235090616     -0.0000000000      0.0000000000
 C      1.3117545308     -2.2720254944      0.0000000000
 C     -1.3117545308     -2.2720254944     -0.0000000000
 H     -4.6517254365      0.0000000000     -0.0000000000
 H     -2.3258627183      4.0285123995     -0.0000000000
 H      2.3258627183      4.0285123995      0.0000000000
 H      4.6517254365     -0.0000000000      0.0000000000
 H      2.3258627183     -4.0285123995      0.0000000000
 H     -2.3258627183     -4.0285123995     -0.0000000000


[FR-NORM-COORD]
Vibration 1
     -0.0000000000     -0.0000000000      0.0622282703
     -0.0000000000      0.0000000000     -0.2232870674
      0.0000000000      0.0000000000      0.1610587971
      0.0000000000     -0.0000000000      0.0622282703
      0.0000000000     -0.0000000000     -0.2232870674
     -0.0000000000     -0.0000000000      0.1610587971
     -0.0000000000     -0.0000000000      0.1429346207
     -0.0000000000     -0.0000000000     -0.5128770594
      0.0000000000      0.0000000000      0.3699424387
      0.0000000000     -0.0000000000      0.1429346207
     -0.0000000000     -0.0000000000     -0.5128770594
      0.0000000000     -0.0000000000      0.3699424387
Vibration 2
     -0.0000000000     -0.0000000000      0.2219021883
      0.0000000000      0.0000000000     -0.0570598313
      0.0000000000      0.0000000000     -0.1648423571
     -0.0000000000      0.0000000000      0.2219021883
     -0.0000000000     -0.0000000000     -0.0570598313
      0.0000000000     -0.0000000000     -0.1648423571
     -0.0000000000     -0.0000000000      0.5096960749
      0.0000000000      0.0000000000     -0.1310630249
      0.0000000000     -0.0000000000     -0.3786330500
     -0.0000000000     -0.0000000000      0.5096960749
      0.0000000000      0.0000000000     -0.1310630249
     -0.0000000000     -0.0000000000     -0.3786330500
Vibration 3
      0.0244851805     -0.1568071081      0.0000000000
      0.2260221458     -0.2162470886     -0.0000000000
      0.2223059286      0.2466656987      0.0000000000
     -0.0244851805      0.1568071081     -0.0000000000
     -0.2260221458      0.2162470886      0.0000000000
     -0.2223059286     -0.2466656987     -0.0000000000
      0.0244673920      0.2166594833      0.0000000000
      0.0451927888     -0.3203970593      0.0000000000
      0.0794766777      0.3288557575      0.0000000000
     -0.0244673920     -0.2166594833     -0.0000000000
     -0.0451927888      0.3203970593      0.0000000000
     -0.0794766777     -0.3288557575     -0.0000000000
Vibration 4
     -0.3608775608     -0.0106392050     -0.0000000000
     -0.0121766358     -0.2398681213      0.0000000000
      0.0425952459     -0.2084599531     -0.0000000000
      0.3608775608      0.0106392050      0.0000000000
      0.0121766358      0.2398681213     -0.0000000000
     -0.0425952459      0.2084599531      0.0000000000
     -0.3606153834      0.0147001286     -0.0000000000
      0.2568778075     -0.0843603094      0.0000000000
     -0.2484191092     -0.0403091571     -0.0000000000
      0.3606153834     -0.0147001286     -0.0000000000
     -0.2568778075      0.0843603094     -0.0000000000
      0.2484191092      0.0403091571     -0.0000000000
Vibration 5
     -0.0000000000      0.0000000000     -0.0341666176
      0.0000000000     -0.0000000000     -0.0341666176
      0.0000000000     -0.0000000000     -0.0341666176
      0.0000000000      0.0000000000     -0.0341666176
      0.0000000000     -0.0000000000     -0.0341666176
      0.0000000000      0.0000000000     -0.0341666176
     -0.0000000000     -0.0000000000      0.4068160627
      0.0000000000     -0.0000000000      0.4068160627
     -0.0000000000      0.0000000000      0.4068160627
      0.0000000000      0.0000000000      0.4068160627
     -0.0000000000     -0.0000000000      0.4068160627
      0.0000000000      0.0000000000      0.4068160627
Vibration 6
      0.0000000000     -0.0000000000     -0.1634832152
      0.0000000000     -0.0000000000      0.1634832152
     -0.0000000000      0.0000000000     -0.1634832152
     -0.0000000000      0.0000000000      0.1634832152
     -0.0000000000      0.0000000000     -0.1634832152
     -0.0000000000     -0.0000000000      0.1634832152
      0.0000000000      0.0000000000     -0.3740854248
      0.0000000000     -0.0000000000      0.3740854248
      0.0000000000     -0.0000000000     -0.3740854248
     -0.0000000000     -0.0000000000      0.3740854248
     -0.0000000000      0.0000000000     -0.3740854248
     -0.0000000000     -0.0000000000      0.3740854248
Vibration 7
     -0.0000000000      0.0000000000      0.0848517861
     -0.0000000000      0.0000000000      0.0375573572
      0.0000000000      0.0000000000     -0.0472944289
      0.0000000000      0.0000000000     -0.0848517861
     -0.0000000000     -0.0000000000     -0.0375573572
      0.0000000000     -0.0000000000      0.0472944289
     -0.0000000000      0.0000000000     -0.5698041249
      0.0000000000      0.0000000000     -0.2522084455
     -0.0000000000      0.0000000000      0.3175956794
      0.0000000000     -0.0000000000      0.5698041249
     -0.0000000000     -0.0000000000      0.2522084455
      0.0000000000     -0.0000000000     -0.3175956794
Vibration 8
      0.0000000000     -0.0000000000      0.0056217009
      0.0000000000      0.0000000000      0.0762946528
     -0.0000000000     -0.0000000000      0.0706729518
      0.0000000000     -0.0000000000     -0.0056217009
     -0.0000000000      0.0000000000     -0.0762946528
     -0.0000000000     -0.0000000000     -0.0706729518
      0.0000000000      0.0000000000     -0.0377513371
      0.0000000000      0.0000000000     -0.5123405159
     -0.0000000000     -0.0000000000     -0.4745891788
      0.0000000000     -0.0000000000      0.0377513371
     -0.0000000000      0.0000000000      0.5123405159
      0.0000000000     -0.0000000000      0.4745891788
Vibration 9
     -0.2737432401     -0.0000000000      0.0000000000
     -0.1368716201      0.2370686001     -0.0000000000
      0.1368716201      0.2370686001      0.0000000000
      0.2737432401     -0.0000000000      0.0000000000
      0.1368716201     -0.2370686001     -0.0000000000
     -0.1368716201     -0.2370686001      0.0000000000
     -0.3028717635     -0.0000000000     -0.0000000000
     -0.1514358818      0.2622946413      0.0000000000
      0.1514358818      0.2622946413     -0.0000000000
      0.3028717635     -0.0000000000     -0.0000000000
      0.1514358818     -0.2622946413      0.0000000000
     -0.1514358818     -0.2622946413      0.0000000000
Vibration 10
     -0.2878613207      0.0000000000      0.0000000000
      0.1439306604     -0.2492952165     -0.0000000000
      0.1439306604      0.2492952165      0.0000000000
     -0.2878613207     -0.0000000000      0.0000000000
      0.1439306604     -0.2492952165     -0.0000000000
      0.1439306604      0.2492952165      0.0000000000
     -0.2894866607      0.0000000000     -0.0000000000
      0.1447433303     -0.2507028022      0.0000000000
      0.1447433303      0.2507028022     -0.0000000000
     -0.2894866607      0.0000000000     -0.0000000000
      0.1447433303     -0.2507028022      0.0000000000
      0.1447433303      0.2507028022     -0.0000000000
Vibration 11
      0.0000000000      0.0000000000     -0.1093080872
      0.0000000000     -0.0000000000      0.0517342997
     -0.0000000000      0.0000000000      0.0575737875
      0.0000000000      0.0000000000     -0.1093080872
      0.0000000000     -0.0000000000      0.0517342997
     -0.0000000000      0.0000000000      0.0575737875
      0.0000000000      0.0000000000      0.5666288664
     -0.0000000000     -0.0000000000     -0.2681791287
     -0.0000000000      0.0000000000     -0.2984497378
      0.0000000000      0.0000000000      0.5666288664
     -0.0000000000     -0.0000000000     -0.2681791287
     -0.0000000000      0.0000000000     -0.2984497378
Vibration 12
      0.0000000000     -0.0000000000      0.0033714299
     -0.0000000000      0.0000000000     -0.0963492953
      0.0000000000      0.0000000000      0.0929778654
      0.0000000000     -0.0000000000      0.0033714299
     -0.0000000000      0.0000000000     -0.0963492953
      0.0000000000      0.0000000000      0.0929778654
      0.0000000000     -0.0000000000     -0.0174767443
     -0.0000000000     -0.0000000000      0.4994533650
      0.0000000000     -0.0000000000     -0.4819766207
      0.0000000000     -0.0000000000     -0.0174767443
     -0.0000000000     -0.0000000000      0.4994533650
      0.0000000000     -0.0000000000     -0.4819766207
Vibration 13
      0.0097188039     -0.0905200318     -0.0000000000
     -0.0958969478      0.0633192376      0.0000000000
      0.0901396434      0.0778655268     -0.0000000000
      0.0097188039     -0.0905200318     -0.0000000000
     -0.0958969478      0.0633192376      0.0000000000
      0.0901396434      0.0778655268     -0.0000000000
      0.0106072401     -0.5378298428      0.0000000000
     -0.3205172834     -0.0555158511     -0.0000000000
      0.2627411478     -0.0099105977      0.0000000000
      0.0106072401     -0.5378298428      0.0000000000
     -0.3205172834     -0.0555158511     -0.0000000000
      0.2627411478     -0.0099105977      0.0000000000
Vibration 14
     -0.1242965202     -0.0070778042     -0.0000000000
      0.0295427491      0.0985379474      0.0000000000
      0.0440890384     -0.0874986437      0.0000000000
     -0.1242965202     -0.0070778042     -0.0000000000
      0.0295427491      0.0985379474      0.0000000000
      0.0440890384     -0.0874986437      0.0000000000
     -0.1356589817     -0.0420531705      0.0000000000
      0.3466550100      0.2890713530     -0.0000000000
      0.3922602633     -0.2941870781     -0.0000000000
     -0.1356589817     -0.0420531705      0.0000000000
      0.3466550100      0.2890713530     -0.0000000000
      0.3922602633     -0.2941870781     -0.0000000000
Vibration 15
     -0.0000000000     -0.0000000000     -0.0770461151
     -0.0000000000      0.0000000000      0.0770461151
      0.0000000000      0.0000000000     -0.0770461151
      0.0000000000     -0.0000000000      0.0770461151
     -0.0000000000     -0.0000000000     -0.0770461151
     -0.0000000000     -0.0000000000      0.0770461151
     -0.0000000000     -0.0000000000      0.4009121635
     -0.0000000000      0.0000000000     -0.4009121635
      0.0000000000      0.0000000000      0.4009121635
      0.0000000000     -0.0000000000     -0.4009121635
     -0.0000000000     -0.0000000000      0.4009121635
     -0.0000000000     -0.0000000000     -0.4009121635
Vibration 16
      0.0000000000     -0.1003321433      0.0000000000
      0.0868901850      0.0501660717     -0.0000000000
     -0.0868901850      0.0501660717     -0.0000000000
      0.0000000000     -0.1003321433      0.0000000000
      0.0868901850      0.0501660717     -0.0000000000
     -0.0868901850      0.0501660717      0.0000000000
      0.0000000000     -0.3957273401     -0.0000000000
      0.3427099295      0.1978636700      0.0000000000
     -0.3427099295      0.1978636700      0.0000000000
     -0.0000000000     -0.3957273401     -0.0000000000
      0.3427099295      0.1978636700      0.0000000000
     -0.3427099295      0.1978636700     -0.0000000000
Vibration 17
     -0.0000035198     -0.0655428924     -0.0000000000
      0.0281841527      0.0158262448      0.0000000000
      0.0289620436     -0.0162794246      0.0000000000
      0.0000035198      0.0655428924     -0.0000000000
     -0.0281841527     -0.0158262448     -0.0000000000
     -0.0289620436      0.0162794246      0.0000000000
      0.0000001089     -0.5735994283      0.0000000000
      0.2449583029      0.1414405371     -0.0000000000
      0.2517814812     -0.1453797752     -0.0000000000
     -0.0000001089      0.5735994283      0.0000000000
     -0.2449583029     -0.1414405371      0.0000000000
     -0.2517814812      0.1453797752     -0.0000000000
Vibration 18
      0.0004438512     -0.0005197672     -0.0000000000
      0.0492727964      0.0287004001     -0.0000000000
     -0.0488196166      0.0284457962      0.0000000000
     -0.0004438512      0.0005197672      0.0000000000
     -0.0492727964     -0.0287004001     -0.0000000000
      0.0488196166     -0.0284457962      0.0000000000
     -0.0000137321     -0.0045487493      0.0000000000
      0.4321726233      0.2495071610      0.0000000000
     -0.4282333852      0.2472326231     -0.0000000000
      0.0000137321      0.0045487493     -0.0000000000
     -0.4321726233     -0.2495071610     -0.0000000000
      0.4282333852     -0.2472326231      0.0000000000
Vibration 19
     -0.0000000000      0.1283736389     -0.0000000000
     -0.1111748325     -0.0641868195      0.0000000000
      0.1111748325     -0.0641868195      0.0000000000
     -0.0000000000      0.1283736389     -0.0000000000
     -0.1111748325     -0.0641868195      0.0000000000
      0.1111748325     -0.0641868195      0.0000000000
     -0.0000000000     -0.3875395147      0.0000000000
      0.3356190647      0.1937697574     -0.0000000000
     -0.3356190647      0.1937697574     -0.0000000000
     -0.0000000000     -0.3875395147     -0.0000000000
      0.3356190647      0.1937697574     -0.0000000000
     -0.3356190647      0.1937697574      0.0000000000
Vibration 20
      0.0000000000     -0.0601308121      0.0000000000
     -0.0520748108     -0.0300654060     -0.0000000000
     -0.0520748108      0.0300654060      0.0000000000
      0.0000000000      0.0601308121     -0.0000000000
      0.0520748108      0.0300654060      0.0000000000
      0.0520748108     -0.0300654060     -0.0000000000
      0.0000000000      0.4037956811      0.0000000000
      0.3496973178      0.2018978406      0.0000000000
      0.3496973178     -0.2018978406     -0.0000000000
      0.0000000000     -0.4037956811     -0.0000000000
     -0.3496973178     -0.2018978406     -0.0000000000
     -0.3496973178      0.2018978406     -0.0000000000
Vibration 21
     -0.0015800455     -0.1400224585     -0.0000000000
     -0.0960351182      0.0308055845      0.0000000000
      0.0991338430      0.0271920555     -0.0000000000
     -0.0015800455     -0.1400224585     -0.0000000000
     -0.0960351182      0.0308055845      0.0000000000
      0.0991338430      0.0271920555      0.0000000000
     -0.0020058994      0.5427637611      0.0000000000
      0.1800726814      0.2134629968     -0.0000000000
     -0.1961494364      0.2204287025      0.0000000000
     -0.0020058994      0.5427637611     -0.0000000000
      0.1800726814      0.2134629968     -0.0000000000
     -0.1961494364      0.2204287025     -0.0000000000
Vibration 22
      0.0853392462     -0.0025924984      0.0000000000
     -0.0854887968     -0.0970475711     -0.0000000000
     -0.0818752678      0.0981213902      0.0000000000
      0.0853392462     -0.0025924984      0.0000000000
     -0.0854887968     -0.0970475711     -0.0000000000
     -0.0818752678      0.0981213902     -0.0000000000
      0.1083398792      0.0100492035     -0.0000000000
      0.4376406435      0.1921277843      0.0000000000
      0.4306749378     -0.1840943335     -0.0000000000
      0.1083398792      0.0100492035     -0.0000000000
      0.4376406435      0.1921277843      0.0000000000
      0.4306749378     -0.1840943335     -0.0000000000
Vibration 23
     -0.0014700426      0.3158286726      0.0000000000
     -0.0714107205     -0.1865765132     -0.0000000000
     -0.0769653147      0.1880860006     -0.0000000000
      0.0014700426     -0.3158286726      0.0000000000
      0.0714107205      0.1865765132      0.0000000000
      0.0769653147     -0.1880860006     -0.0000000000
     -0.0017374965     -0.4283719566     -0.0000000000
      0.2566098939     -0.0236376868      0.0000000000
      0.2622781388      0.0183588360      0.0000000000
      0.0017374965      0.4283719566      0.0000000000
     -0.2566098939      0.0236376868     -0.0000000000
     -0.2622781388     -0.0183588360     -0.0000000000
Vibration 24
      0.1444987850      0.0032130486      0.0000000000
     -0.2737509444     -0.0760938117      0.0000000000
      0.2722414570     -0.0722822235     -0.0000000000
     -0.1444987850     -0.0032130486     -0.0000000000
      0.2737509444      0.0760938117     -0.0000000000
     -0.2722414570      0.0722822235     -0.0000000000
      0.1707883341     -0.0043579954     -0.0000000000
      0.2812213093      0.2592303928     -0.0000000000
     -0.2759424585      0.2596576399     -0.0000000000
     -0.1707883341      0.0043579954      0.0000000000
     -0.2812213093     -0.2592303928      0.0000000000
      0.2759424585     -0.2596576399      0.0000000000
Vibration 25
     -0.0343581687     -0.0000000000      0.0000000000
      0.0171790843     -0.0297550469      0.0000000000
      0.0171790843      0.0297550469     -0.0000000000
     -0.0343581687      0.0000000000     -0.0000000000
      0.0171790843     -0.0297550469      0.0000000000
      0.0171790843      0.0297550469     -0.0000000000
      0.4067999298     -0.0000000000     -0.0000000000
     -0.2033999649      0.3522990735     -0.0000000000
     -0.2033999649     -0.3522990735      0.0000000000
      0.4067999298     -0.0000000000      0.0000000000
     -0.2033999649      0.3522990735     -0.0000000000
     -0.2033999649     -0.3522990735     -0.0000000000
Vibration 26
     -0.0016160819     -0.0029596590      0.0000000000
     -0.0197681137      0.0373656864     -0.0000000000
     -0.0207204779     -0.0386819293      0.0000000000
      0.0016160819      0.0029596590     -0.0000000000
      0.0197681137     -0.0373656864      0.0000000000
      0.0207204779      0.0386819293      0.0000000000
      0.0186888132      0.0035549668     -0.0000000000
      0.2426327745     -0.4240074302      0.0000000000
      0.2521505337      0.4400923321      0.0000000000
     -0.0186888132     -0.0035549668     -0.0000000000
     -0.2426327745      0.4240074302     -0.0000000000
     -0.2521505337     -0.4400923321     -0.0000000000
Vibration 27
      0.0497118575     -0.0000962155     -0.0000000000
     -0.0153058301      0.0214804111      0.0000000000
      0.0139895872      0.0190081805     -0.0000000000
     -0.0497118575      0.0000962155     -0.0000000000
      0.0153058301     -0.0214804111      0.0000000000
     -0.0139895872     -0.0190081805     -0.0000000000
     -0.5748815192      0.0001155684     -0.0000000000
      0.1544290559     -0.2614371561      0.0000000000
     -0.1383441540     -0.2333461521     -0.0000000000
      0.5748815192     -0.0001155684     -0.0000000000
     -0.1544290559      0.2614371561      0.0000000000
      0.1383441540      0.2333461521      0.0000000000
Vibration 28
      0.0015740324     -0.0039839697     -0.0000000000
     -0.0238470260      0.0371105582      0.0000000000
      0.0244524083      0.0385785766      0.0000000000
      0.0015740324     -0.0039839697     -0.0000000000
     -0.0238470260      0.0371105582      0.0000000000
      0.0244524083      0.0385785766      0.0000000000
     -0.0174679511      0.0055275800     -0.0000000000
      0.2470114202     -0.4220177551      0.0000000000
     -0.2554933869     -0.4372909418     -0.0000000000
     -0.0174679511      0.0055275800      0.0000000000
      0.2470114202     -0.4220177551      0.0000000000
     -0.2554933869     -0.4372909418     -0.0000000000
Vibration 29
      0.0517874131      0.0001210892     -0.0000000000
      0.0106928852     -0.0252999691      0.0000000000
      0.0092248668      0.0229994652     -0.0000000000
      0.0517874131      0.0001210892      0.0000000000
      0.0106928852     -0.0252999691     -0.0000000000
      0.0092248668      0.0229994652      0.0000000000
     -0.5747149913     -0.0001680059      0.0000000000
     -0.1471696562      0.2643113654     -0.0000000000
     -0.1318964694     -0.2381934417     -0.0000000000
     -0.5747149913     -0.0001680059      0.0000000000
     -0.1471696562      0.2643113654     -0.0000000000
     -0.1318964694     -0.2381934417      0.0000000000
Vibration 30
      0.0377725876     -0.0000000000     -0.0000000000
      0.0188862938     -0.0327120205      0.0000000000
     -0.0188862938     -0.0327120205     -0.0000000000
     -0.0377725876     -0.0000000000      0.0000000000
     -0.0188862938      0.0327120205     -0.0000000000
      0.0188862938      0.0327120205      0.0000000000
     -0.4064971074     -0.0000000000     -0.0000000000
     -0.2032485537      0.3520368215      0.0000000000
      0.2032485537      0.3520368215      0.0000000000
      0.4064971074      0.0000000000     -0.0000000000
      0.2032485537     -0.3520368215      0.0000000000
     -0.2032485537     -0.3520368215     -0.0000000000

[INT]
        0.0000000000
        0.0000000000
        0.0000000000
        0.0000000000
      146.8730018083
        0.0000000000
        0.0000000000
        0.0000000000
        0.0000000000
        0.0000000000
        0.0000000000
        0.0000000000
        3.9260138163
        3.9260138163
        0.0000000000
        0.0000000000
        0.0000000000
        0.0000000000
        0.0000000000
        0.0000000000
       14.0110473734
       14.0110473734
        0.0000000000
        0.0000000000
        0.0000000000
        0.0000000000
        0.0000000000
       59.2692107899
       59.2692107898
        0.0000000000