[Molden Format]

[FREQ]
      593.1235970630
      593.1235970630
     1397.7986066624
     2329.7215133807


[FR-COORD]
 O      0.0000000000      0.0000000000      2.1888379825
 C     -0.0000000000     -0.0000000000      0.0000000000
 O      0.0000000000      0.0000000000     -2.1888379825


[FR-NORM-COORD]
Vibration 1
     -0.0530150090      0.3271085119     -0.0000000000
      0.1413284238     -0.8720121198      0.0000000000
     -0.0530150090      0.3271085119      0.0000000000
Vibration 2
      0.3271085119      0.0530150090     -0.0000000000
     -0.8720121198     -0.1413284238      0.0000000000
      0.3271085119      0.0530150090      0.0000000000
Vibration 3
     -0.0000000000     -0.0000000000     -0.7071067812
      0.0000000000      0.0000000000     -0.0000000000
     -0.0000000000     -0.0000000000      0.7071067812
Vibration 4
      0.0000000000      0.0000000000      0.3313767791
     -0.0000000000     -0.0000000000     -0.8833905481
      0.0000000000      0.0000000000      0.3313767791

[INT]
       68.3940958845
       68.3940958845
        0.0000000000
     1039.3950829646