[Molden Format]

[FREQ]
      270.0500439784
      316.7825820252
      447.5693374069
      886.7630527898
      978.0016343857
     1132.9575260536
     1217.5509366827
     1298.7392023624
     1395.5597158738
     1423.9444099432
     1549.4988419557
     1613.4337844592
     1628.7260261295
     1645.8297010518
     1685.9462044411
     3175.3643746539
     3200.2646796196
     3212.2110796737
     3276.7325491955
     3289.0140812831
     4114.5978567853


[FR-COORD]
 C     -2.0861269881     -1.2390493791      0.0000000000
 C     -0.3327667124      1.0256342987      0.0000000000
 O      2.1659219068      0.1305814162      0.0000000000
 H     -4.0469897696     -0.6356762368      0.0000000000
 H     -1.7563013948     -2.3934460567      1.6602854619
 H     -1.7563013948     -2.3934460567     -1.6602854619
 H     -0.6844850256      2.1903550575     -1.6586662462
 H     -0.6844850256      2.1903550575      1.6586662462
 H      3.3005365081      1.5135365407      0.0000000000


[FR-NORM-COORD]
Vibration 1
     -0.0000000000     -0.0000000000      0.0108251873
      0.0000000000     -0.0000000000      0.0573395158
      0.0000000000      0.0000000000     -0.0835523262
     -0.0000000000      0.0000000000     -0.5441155292
     -0.3975145040      0.2295991520      0.2497609779
      0.3975145040     -0.2295991520      0.2497609779
     -0.0526104323      0.0716875958      0.1188214306
      0.0526104323     -0.0716875958      0.1188214306
     -0.0000000000      0.0000000000      0.3213613185
Vibration 2
     -0.0000000000     -0.0000000000     -0.0271383521
      0.0000000000     -0.0000000000      0.0550803254
      0.0000000000      0.0000000000      0.0387761881
     -0.0000000000      0.0000000000     -0.2323733438
     -0.1681407433      0.0398029669      0.0345097021
      0.1681407433     -0.0398029669      0.0345097021
      0.0019074005      0.0256485617      0.0730882393
     -0.0019074005     -0.0256485617      0.0730882393
     -0.0000000000      0.0000000000     -0.9309290726
Vibration 3
     -0.2019993400     -0.0249685715     -0.0000000000
      0.0535028150     -0.1798648565     -0.0000000000
      0.1835859528      0.1404079988      0.0000000000
     -0.0725012672      0.4100374376      0.0000000000
     -0.4895547412     -0.0931552609      0.0105924531
     -0.4895547412     -0.0931552609     -0.0105924531
     -0.0087468988     -0.1839272217      0.0101516953
     -0.0087468988     -0.1839272217     -0.0101516953
     -0.0764150655      0.3546672301      0.0000000000
Vibration 4
      0.0000000000      0.0000000000      0.0471337282
     -0.0000000000     -0.0000000000      0.0621347521
     -0.0000000000      0.0000000000     -0.0222300949
      0.0000000000      0.0000000000     -0.1845898268
     -0.2277210914     -0.3901140244     -0.1831710131
      0.2277210914      0.3901140244     -0.1831710131
     -0.1150076959     -0.4257069245     -0.2167276596
      0.1150076959      0.4257069245     -0.2167276596
     -0.0000000000      0.0000000000      0.0361538350
Vibration 5
     -0.2053896827     -0.0993808779      0.0000000000
     -0.0209119953      0.1697242586      0.0000000000
      0.1430471251     -0.0212114154     -0.0000000000
     -0.3911086807     -0.7085256641     -0.0000000000
      0.1450043475     -0.0668917356     -0.0415642293
      0.1450043475     -0.0668917356      0.0415642293
      0.1533332160      0.2092308266      0.0000262616
      0.1533332160      0.2092308266     -0.0000262616
      0.2187071812     -0.0770785445     -0.0000000000
Vibration 6
     -0.0177917401      0.1729562412      0.0000000000
     -0.1144694627     -0.1383667703     -0.0000000000
      0.0842633139     -0.0449152157     -0.0000000000
     -0.1559107675     -0.3232359902     -0.0000000000
      0.4087324164      0.2497219075     -0.0342834290
      0.4087324164      0.2497219075      0.0342834290
     -0.0056515354     -0.1231208902     -0.0020964731
     -0.0056515354     -0.1231208902      0.0020964731
     -0.4127594516      0.3710201185     -0.0000000000
Vibration 7
     -0.0793307048     -0.0067481428      0.0000000000
      0.2498772388     -0.0695750383     -0.0000000000
     -0.1670503937      0.0598890701      0.0000000000
     -0.1702430073     -0.3320119710     -0.0000000000
      0.1340460448     -0.0335250463     -0.0511890497
      0.1340460448     -0.0335250463      0.0511890497
      0.4758614849      0.0458335789      0.0159394953
      0.4758614849      0.0458335789     -0.0159394953
     -0.4290294399      0.2656789453     -0.0000000000
Vibration 8
      0.0000000000     -0.0000000000      0.1089858900
     -0.0000000000      0.0000000000     -0.1743762688
      0.0000000000     -0.0000000000      0.0535253235
      0.0000000000      0.0000000000     -0.2097854050
     -0.1555660718     -0.3215787224     -0.0932049471
      0.1555660718      0.3215787224     -0.0932049471
     -0.3831731662      0.3806348791      0.1655237870
      0.3831731662     -0.3806348791      0.1655237870
      0.0000000000     -0.0000000000     -0.0057459636
Vibration 9
      0.0573028336     -0.0659363693     -0.0000000000
     -0.0630207427      0.0941816380      0.0000000000
      0.0372729173     -0.0803734164      0.0000000000
      0.1218525706      0.1698722435      0.0000000000
     -0.2154949293     -0.0615256109      0.0547714263
     -0.2154949293     -0.0615256109     -0.0547714263
      0.2125120816      0.2003047800      0.0118032727
      0.2125120816      0.2003047800     -0.0118032727
     -0.6393529578      0.4918422852     -0.0000000000
Vibration 10
      0.0000000000     -0.0000000000      0.0842083440
      0.0000000000      0.0000000000     -0.0240345697
     -0.0000000000     -0.0000000000     -0.0294313580
      0.0000000000     -0.0000000000     -0.1092901621
     -0.1017483828     -0.2224681139     -0.0507182084
      0.1017483828      0.2224681139     -0.0507182084
      0.6261009036      0.1873275708     -0.0125992475
     -0.6261009036     -0.1873275708     -0.0125992475
     -0.0000000000      0.0000000000     -0.0134567394
Vibration 11
      0.0698439797      0.1104191861     -0.0000000000
      0.0483711936      0.0236573911     -0.0000000000
      0.0025597238     -0.0204313591      0.0000000000
     -0.1430421838     -0.5510797222      0.0000000000
     -0.3547199032     -0.2985535901     -0.1856116817
     -0.3547199032     -0.2985535901      0.1856116817
     -0.2432196803     -0.0994641387     -0.0220951091
     -0.2432196803     -0.0994641387      0.0220951091
     -0.1092711383      0.0749488404      0.0000000000
Vibration 12
     -0.0793689179     -0.0401661071      0.0000000000
      0.1346805607      0.0866743714     -0.0000000000
      0.0058943121     -0.0497041851      0.0000000000
      0.0292914119      0.2963396318     -0.0000000000
      0.2831572470     -0.0358519779     -0.0633224227
      0.2831572470     -0.0358519779      0.0633224227
     -0.5251045410     -0.0999187412     -0.0081091468
     -0.5251045410     -0.0999187412      0.0081091468
     -0.2975300899      0.2102773571      0.0000000000
Vibration 13
     -0.0000000000      0.0000000000     -0.0516235196
     -0.0000000000     -0.0000000000     -0.0205476147
      0.0000000000     -0.0000000000      0.0017560640
      0.0000000000      0.0000000000      0.7176557867
     -0.4862830571     -0.0132975147      0.0518836246
      0.4862830571      0.0132975147      0.0518836246
      0.0089101418      0.0386946787      0.0018683534
     -0.0089101418     -0.0386946787      0.0018683534
     -0.0000000000      0.0000000000      0.0062995792
Vibration 14
     -0.0212509237      0.0460785607      0.0000000000
     -0.0485049414     -0.0281535894      0.0000000000
      0.0043687219      0.0060350583     -0.0000000000
      0.0705747287      0.2911462356     -0.0000000000
      0.2090079272     -0.4555107529     -0.3834196854
      0.2090079272     -0.4555107529      0.3834196854
      0.1107031063      0.1724203394      0.1008612319
      0.1107031063      0.1724203394     -0.1008612319
      0.0512395524     -0.0341757260      0.0000000000
Vibration 15
      0.0095550331     -0.0020738913     -0.0000000000
      0.0334016446     -0.0829600949      0.0000000000
      0.0030581088     -0.0037527791     -0.0000000000
     -0.0207712747     -0.1064196380     -0.0000000000
     -0.0564478994      0.1020584715      0.0829101612
     -0.0564478994      0.1020584715     -0.0829101612
     -0.2181633761      0.4922419186      0.4237784994
     -0.2181633761      0.4922419186     -0.4237784994
      0.0099816176     -0.0101367093      0.0000000000
Vibration 16
     -0.0095037509      0.0014743867      0.0000000000
      0.0148544526     -0.0638228599     -0.0000000000
      0.0023787915      0.0001823652      0.0000000000
      0.1297497551     -0.0481446904      0.0000000000
     -0.0084935933      0.0205619392     -0.0281358980
     -0.0084935933      0.0205619392      0.0281358980
     -0.1101646197      0.3761116907     -0.5773297360
     -0.1101646197      0.3761116907      0.5773297360
      0.0061036345     -0.0057242481      0.0000000000
Vibration 17
     -0.0000000000     -0.0000000000     -0.0142661028
      0.0000000000     -0.0000000000      0.0947439962
      0.0000000000      0.0000000000     -0.0005759147
      0.0000000000     -0.0000000000     -0.0038685368
      0.0208181286     -0.0612952435      0.0889149459
     -0.0208181286      0.0612952435      0.0889149459
     -0.1083745523      0.3957381043     -0.5612059425
      0.1083745523     -0.3957381043     -0.5612059425
      0.0000000000     -0.0000000000     -0.0006457755
Vibration 18
     -0.0375130272     -0.0340293005      0.0000000000
     -0.0001485964      0.0099856292     -0.0000000000
     -0.0004012605      0.0000096580      0.0000000000
      0.6201768825     -0.1966950447     -0.0000000000
     -0.0931258211      0.2911960151     -0.4308931777
     -0.0931258211      0.2911960151      0.4308931777
      0.0117167865     -0.0500904754      0.0722981038
      0.0117167865     -0.0500904754     -0.0722981038
     -0.0025600185      0.0006145605      0.0000000000
Vibration 19
      0.0699551636     -0.0605137458     -0.0000000000
      0.0023915423     -0.0057264194      0.0000000000
     -0.0004278558      0.0001619416     -0.0000000000
     -0.7055979836      0.2145701406      0.0000000000
     -0.0666223403      0.2554676973     -0.3890200450
     -0.0666223403      0.2554676973      0.3890200450
     -0.0078158330      0.0296787937     -0.0420329535
     -0.0078158330      0.0296787937      0.0420329535
     -0.0001551209      0.0012770457      0.0000000000
Vibration 20
      0.0000000000     -0.0000000000      0.0925907308
      0.0000000000     -0.0000000000      0.0155649588
     -0.0000000000     -0.0000000000     -0.0003356371
     -0.0000000000      0.0000000000      0.0144273168
     -0.1180061763      0.3952865594     -0.5598947990
      0.1180061763     -0.3952865594     -0.5598947990
     -0.0138637558      0.0620193986     -0.0882628517
      0.0138637558     -0.0620193986     -0.0882628517
      0.0000000000      0.0000000000     -0.0005764790
Vibration 21
      0.0000641695     -0.0003312584      0.0000000000
     -0.0008792295      0.0017608276     -0.0000000000
      0.0414576386      0.0471231744     -0.0000000000
     -0.0013948963      0.0008486581     -0.0000000000
     -0.0002349333     -0.0002350077      0.0001981502
     -0.0002349333     -0.0002350077     -0.0001981502
     -0.0026386191     -0.0002102626      0.0007313758
     -0.0026386191     -0.0002102626     -0.0007313758
     -0.6411160288     -0.7648587273      0.0000000000

[INT]
       27.9163567290
      126.5095832546
       12.2069250967
        0.2498302187
        6.1941215993
       59.5320820021
       26.2665967370
        7.1183813096
      121.7880105509
        0.1021619234
        0.1206984009
       17.1542072554
        2.8658442903
        3.0411623100
        3.7090267803
       78.3273277517
       82.7608999450
       20.5776939060
       48.8342432545
       53.7317131307
       41.2138347098