[Molden Format]

[FREQ]
      894.9289231304
     1089.5389673033
     1104.4450840219
     1136.4930620166
     1346.0761308975
     1479.9814217050
     1594.4776969499
     1830.0438614910
     3299.9887646300
     3321.4956584607
     3378.8017004090
     3405.7158425722


[FR-COORD]
 C      0.0000000000     -0.0000000000     -1.2481975772
 C     -0.0000000000      0.0000000000      1.2481975772
 H      0.0000000000      1.7313239785     -2.3156463067
 H     -0.0000000000     -1.7313239785     -2.3156463067
 H      0.0000000000      1.7313239785      2.3156463067
 H     -0.0000000000     -1.7313239785      2.3156463067


[FR-NORM-COORD]
Vibration 1
     -0.0000000000     -0.0395859781     -0.0000000000
      0.0000000000     -0.0395859781     -0.0000000000
      0.0000000000      0.2356717300      0.4400855722
     -0.0000000000      0.2356717300     -0.4400855722
     -0.0000000000      0.2356717300     -0.4400855722
      0.0000000000      0.2356717300      0.4400855722
Vibration 2
      0.0833992189      0.0000000000     -0.0000000000
      0.0833992189     -0.0000000000     -0.0000000000
     -0.4965101058      0.0000000000     -0.0000000000
     -0.4965101058      0.0000000000     -0.0000000000
     -0.4965101058      0.0000000000     -0.0000000000
     -0.4965101058      0.0000000000      0.0000000000
Vibration 3
      0.1521589853      0.0000000000     -0.0000000000
     -0.1521589853     -0.0000000000      0.0000000000
     -0.4882866183     -0.0000000000     -0.0000000000
     -0.4882866183      0.0000000000      0.0000000000
      0.4882866183      0.0000000000     -0.0000000000
      0.4882866183      0.0000000000      0.0000000000
Vibration 4
     -0.0000000000      0.0000000000     -0.0000000000
     -0.0000000000      0.0000000000     -0.0000000000
      0.5000000000     -0.0000000000     -0.0000000000
     -0.5000000000     -0.0000000000      0.0000000000
     -0.5000000000     -0.0000000000      0.0000000000
      0.5000000000     -0.0000000000     -0.0000000000
Vibration 5
     -0.0000000000      0.1525992062     -0.0000000000
      0.0000000000     -0.1525992062     -0.0000000000
      0.0000000000     -0.1400082329     -0.4677119154
      0.0000000000     -0.1400082329      0.4677119154
     -0.0000000000      0.1400082329     -0.4677119154
     -0.0000000000      0.1400082329      0.4677119154
Vibration 6
      0.0000000000     -0.0000000000      0.1081119320
     -0.0000000000     -0.0000000000     -0.1081119320
     -0.0000000000      0.1899883832      0.4561362947
      0.0000000000     -0.1899883832      0.4561362947
      0.0000000000      0.1899883832     -0.4561362947
     -0.0000000000     -0.1899883832     -0.4561362947
Vibration 7
     -0.0000000000      0.0000000000      0.0688126369
      0.0000000000     -0.0000000000      0.0688126369
      0.0000000000     -0.2824938715     -0.4096701394
      0.0000000000      0.2824938715     -0.4096701394
     -0.0000000000      0.2824938715     -0.4096701394
      0.0000000000     -0.2824938715     -0.4096701394
Vibration 8
      0.0000000000      0.0000000000      0.2910148060
     -0.0000000000      0.0000000000     -0.2910148060
     -0.0000000000     -0.3792134146     -0.2526902799
     -0.0000000000      0.3792134146     -0.2526902799
      0.0000000000     -0.3792134146      0.2526902799
      0.0000000000      0.3792134146      0.2526902799
Vibration 9
      0.0000000000      0.0000000000      0.0426206548
     -0.0000000000      0.0000000000      0.0426206548
      0.0000000000      0.4297773323     -0.2537384175
     -0.0000000000     -0.4297773323     -0.2537384175
     -0.0000000000     -0.4297773323     -0.2537384175
      0.0000000000      0.4297773323     -0.2537384175
Vibration 10
      0.0000000000      0.0000000000      0.0560105030
     -0.0000000000     -0.0000000000     -0.0560105030
     -0.0000000000      0.4271044953     -0.2569302665
     -0.0000000000     -0.4271044953     -0.2569302665
      0.0000000000      0.4271044953      0.2569302665
      0.0000000000     -0.4271044953      0.2569302665
Vibration 11
     -0.0000000000     -0.0703227740      0.0000000000
      0.0000000000      0.0703227740     -0.0000000000
      0.0000000000      0.4223159472     -0.2630144377
      0.0000000000      0.4223159472      0.2630144377
     -0.0000000000     -0.4223159472     -0.2630144377
     -0.0000000000     -0.4223159472      0.2630144377
Vibration 12
     -0.0000000000      0.0708463463     -0.0000000000
      0.0000000000      0.0708463463     -0.0000000000
      0.0000000000     -0.4217776538      0.2638067632
     -0.0000000000     -0.4217776538     -0.2638067632
     -0.0000000000     -0.4217776538     -0.2638067632
     -0.0000000000     -0.4217776538      0.2638067632

[INT]
        0.3635587300
      141.2844364681
        0.0000000000
        0.0000000000
        0.0000000000
        0.0000000000
        9.5969643689
        0.0000000000
       20.1596930571
        0.0000000000
        0.0000000000
       31.4986757437