[Molden Format]

[FREQ]
     1679.1308510849
     3855.0403271654
     3974.7548196729


[FR-COORD]
 O      0.0000000000      0.0000000000     -0.1275219301
 H     -1.4155312547      0.0000000000      1.0201754409
 H      1.4155312547     -0.0000000000      1.0201754409


[FR-NORM-COORD]
Vibration 1
      0.0000000000      0.0000000000      0.0698887015
     -0.4358729985      0.0000000000     -0.5545922050
      0.4358729985     -0.0000000000     -0.5545922050
Vibration 2
     -0.0000000000     -0.0000000000      0.0509347810
      0.5790824871     -0.0000000000     -0.4041859685
     -0.5790824871      0.0000000000     -0.4041859685
Vibration 3
      0.0690509173      0.0000000000      0.0000000000
     -0.5479440829      0.0000000000      0.4442671127
     -0.5479440829      0.0000000000     -0.4442671127

[INT]
       75.4088289533
       19.1684098045
       45.9746727417