[Molden Format]

[FREQ]
     1339.7878939921
     1339.7878939923
     1339.7878939927
     1567.8548775335
     1567.8548775338
     3088.2686825160
     3241.0495250796
     3241.0495250797
     3241.0495250797


[FR-COORD]
 C      0.0000000000      0.0000000000      0.0000000000
 H      1.1984556268     -1.1984556268      1.1984556268
 H     -1.1984556268      1.1984556268      1.1984556268
 H      1.1984556268      1.1984556268     -1.1984556268
 H     -1.1984556268     -1.1984556268     -1.1984556268


[FR-NORM-COORD]
Vibration 1
      0.0019049562     -0.0727901566     -0.1008917304
     -0.0583856990      0.4023623676      0.4404442635
      0.3201360158      0.0238406528      0.1602060113
      0.0470447052      0.4095093093      0.4332973219
     -0.3314770096      0.0309875944      0.1673529529
Vibration 2
      0.0202245154     -0.0993801319      0.0720814496
      0.2614390244      0.1226705663      0.0097986906
     -0.0089933866      0.3931029773     -0.4389294263
     -0.3818439443      0.1985481254     -0.0660788686
     -0.1114115333      0.4689805364     -0.3630518672
Vibration 3
     -0.1227538885     -0.0175031284      0.0103102074
      0.4175768820      0.2630326273     -0.2281283458
      0.3788954422      0.3017140671      0.1667474090
      0.3132278782     -0.1975106916      0.2324149731
      0.3519093180     -0.1588292518     -0.2937959099
Vibration 4
     -0.0000000000      0.0000000000      0.0000000000
      0.0936391546     -0.2973079885     -0.3909471431
     -0.0936391546      0.2973079885     -0.3909471431
      0.0936391546      0.2973079885      0.3909471431
     -0.0936391546     -0.2973079885      0.3909471431
Vibration 5
     -0.0000000000     -0.0000000000     -0.0000000000
     -0.3973642855     -0.2797760294      0.1175882561
      0.3973642855      0.2797760294      0.1175882561
     -0.3973642855      0.2797760294     -0.1175882561
      0.3973642855     -0.2797760294     -0.1175882561
Vibration 6
     -0.0000000000      0.0000000000      0.0000000000
     -0.2886751346      0.2886751346     -0.2886751346
      0.2886751346     -0.2886751346     -0.2886751346
     -0.2886751346     -0.2886751346      0.2886751346
      0.2886751346      0.2886751346      0.2886751346
Vibration 7
     -0.0675024841      0.0341827296      0.0537528202
      0.1391879194     -0.1451346768      0.1608290116
      0.4783878448     -0.4843346022     -0.4808418220
      0.2626823375      0.2808306495     -0.2651363147
     -0.0765175879     -0.0583692760     -0.0548764957
Vibration 8
     -0.0139136531      0.0685162187     -0.0610438209
      0.4502024534     -0.4404572372      0.4417908766
      0.0649936504     -0.0552484342     -0.0783717176
     -0.3673687112     -0.3526570046      0.3539906440
      0.0178400918      0.0325517984      0.0094285150
Vibration 9
      0.0621629708      0.0524545404      0.0447067813
     -0.1605953659      0.1810517751     -0.1637108668
      0.1215207506     -0.1010643413     -0.1024471259
     -0.2094865558     -0.2112192720      0.2285601804
     -0.4916026722     -0.4933353885     -0.4947181731

[INT]
        9.2324905008
        9.2324905008
        9.2324905008
        0.0000000000
        0.0000000000
        0.0000000000
       35.8928818897
       35.8928818897
       35.8928818897