[Molden Format]

[FREQ]
      321.1129054563
     1148.2159333067
     1173.2583444856
     1277.6951344605
     1472.0538854628
     1609.0235768822
     1620.2267968138
     1628.8461374188
     3147.6605031677
     3194.2723171582
     3261.3456306386
     4189.4549632074


[FR-COORD]
 C     -0.0536369527      1.3576698775      0.0000000000
 O     -0.0438531840     -1.2880572441      0.0000000000
 H     -2.0077011474      1.9576083087      0.0000000000
 H      0.8630468375      2.1246729681      1.6722904555
 H      0.8630468375      2.1246729681     -1.6722904555
 H      1.6269018481     -1.8900768695      0.0000000000


[FR-NORM-COORD]
Vibration 1
     -0.0000000000      0.0000000000     -0.0051911108
     -0.0000000000      0.0000000000      0.0656167385
     -0.0000000000      0.0000000000     -0.2894479437
     -0.2202994394      0.0345785431      0.1000265413
      0.2202994394     -0.0345785431      0.1000265413
     -0.0000000000      0.0000000000     -0.8901807281
Vibration 2
     -0.0669088793     -0.0248755113     -0.0000000000
      0.0017006070     -0.0212087477      0.0000000000
      0.1067805189      0.5341580606      0.0000000000
      0.2103421088     -0.2683628126     -0.0377852551
      0.2103421088     -0.2683628126      0.0377852551
      0.2422179589      0.6353542322      0.0000000000
Vibration 3
     -0.0221483517      0.5063070315     -0.0000000000
      0.0062488644     -0.4447001160      0.0000000000
     -0.0211660654      0.4748590386      0.0000000000
      0.0313511007      0.3672990125      0.0032452981
      0.0313511007      0.3672990125     -0.0032452981
      0.1230064799     -0.1802545973      0.0000000000
Vibration 4
      0.0000000000     -0.0000000000     -0.1370924361
      0.0000000000      0.0000000000      0.0611910046
     -0.0000000000     -0.0000000000      0.2827650340
     -0.0566169032     -0.6413788413      0.1847725864
      0.0566169032      0.6413788413      0.1847725864
     -0.0000000000     -0.0000000000      0.0088802955
Vibration 5
      0.1274085838     -0.0053431684     -0.0000000000
     -0.0825833133     -0.0382841462      0.0000000000
     -0.0040664362     -0.4490477310      0.0000000000
     -0.2060602728      0.1875255840      0.0979137701
     -0.2060602728      0.1875255840     -0.0979137701
      0.2098119128      0.7452139360     -0.0000000000
Vibration 6
      0.0239996796     -0.1079102441     -0.0000000000
      0.0051284178     -0.0092618132     -0.0000000000
      0.2320376032      0.6259103180      0.0000000000
     -0.2972265585      0.4232613507     -0.0519902797
     -0.2972265585      0.4232613507      0.0519902797
     -0.0047362718     -0.0405725333     -0.0000000000
Vibration 7
     -0.0000000000      0.0000000000     -0.0582400335
     -0.0000000000     -0.0000000000     -0.0088497952
     -0.0000000000     -0.0000000000      0.7225516539
     -0.3944667180      0.2790056252      0.0609906203
      0.3944667181     -0.2790056252      0.0609906203
      0.0000000000      0.0000000000     -0.0106261211
Vibration 8
      0.0438296992      0.0412041301     -0.0000000000
      0.0156373122      0.0074962780     -0.0000000000
      0.0747378870      0.1988446827      0.0000000000
     -0.4136947327     -0.3640131864      0.4104210029
     -0.4136947327     -0.3640131864     -0.4104210029
     -0.0173966338     -0.0804002005     -0.0000000000
Vibration 9
      0.0268089221      0.0435182918      0.0000000000
     -0.0003085001      0.0019214960     -0.0000000000
      0.2810675342     -0.0802642281      0.0000000000
     -0.2967915802     -0.2370559833     -0.5582763131
     -0.2967915802     -0.2370559833      0.5582763131
     -0.0017974967      0.0057158145      0.0000000000
Vibration 10
      0.0000000000      0.0000000000     -0.0945093482
     -0.0000000000      0.0000000000      0.0004651266
      0.0000000000     -0.0000000000     -0.0237007883
      0.3269242167      0.2508823038      0.5704659546
     -0.3269242167     -0.2508823038      0.5704659546
     -0.0000000000      0.0000000000      0.0006936010
Vibration 11
     -0.0902934134      0.0116860582      0.0000000000
      0.0014397019      0.0000334590      0.0000000000
      0.9196117609     -0.2699864760      0.0000000000
      0.0727746347      0.0666179110      0.1635340564
      0.0727746347      0.0666179110     -0.1635340564
     -0.0129019394     -0.0029242587     -0.0000000000
Vibration 12
      0.0015648975      0.0009643795     -0.0000000000
      0.0585674968     -0.0230293407      0.0000000000
     -0.0107878336      0.0037987705      0.0000000000
     -0.0005730568      0.0023276395     -0.0003871437
     -0.0005730568      0.0023276395      0.0003871437
     -0.9362076945      0.3455555978     -0.0000000000

[INT]
      146.7672392120
       41.7527275975
      111.6693010997
        2.5637532041
       35.0691231328
        8.6834823030
        3.1255945611
        4.8099317969
       70.9169911411
       83.1542125462
       43.1546777191
       57.1843751978